{"pretty_formula":{"0":"AlAs","1":"OsN","2":"AgBr","3":"Be5Au","4":"InAs","5":"ReC","6":"TlAs","7":"AlN","8":"CdSe","9":"CdTe","10":"ZnN","11":"GaSb","12":"AgO","13":"GaN","14":"OsC","15":"MoC","16":"ScGe","17":"AgI","18":"CdS","19":"RhC","20":"MnS","21":"InSb","22":"GaP","23":"GaAs","24":"SiC","25":"AgSe","26":"ZrNi5","27":"ScSn","28":"CuI","29":"WN","30":"CuN","31":"Ti2Al","32":"VN","33":"ZnS","34":"SiP","35":"BSb","36":"AgC","37":"MnAs","38":"MgAl","39":"TaC","40":"Be5Fe","41":"SiSn","42":"AlBi","43":"BP","44":"PdN","45":"ScN","46":"YN","47":"PtN","48":"ZnSe","49":"HoCu5","50":"AuN","51":"HfN","52":"ZrC","53":"UNi5","54":"BN","55":"BiB","56":"IrC","57":"AlSb","58":"TaN","59":"PtC","60":"MgSe","61":"RbSb","62":"GaBi","63":"Cu2Se","64":"Ti2Ga","65":"CaAu5","66":"TiN","67":"CaSe","68":"MgTe","69":"InBi","70":"ReN","71":"ZnTe","72":"MnSb","73":"Ti2Si","74":"ScP","75":"TcC","76":"ErCu5","77":"TcN","78":"SnS","79":"CuS","80":"GeP","81":"PdC","82":"MgS","83":"MoP","84":"MnN","85":"CoN","86":"RuN","87":"HgSe","88":"Ti2Ge","89":"IrN","90":"ScSi","91":"TmCu5","92":"TiB","93":"TlN","94":"SnC","95":"TlP","96":"MoS2","97":"CuCl","98":"MnTe","99":"AgN","100":"WC","101":"HgS","102":"MnSe","103":"BeS","104":"BeO","105":"ZrCu5","106":"MnP","107":"HfC","108":"Ti2Sn","109":"BeTe","110":"HfNi5","111":"AlP","112":"FeN","113":"Ti2In","114":"CuBr","115":"CrTe","116":"TcB","117":"NbN","118":"BAs","119":"PrN","120":"ZnO","121":"Mn2Ge","122":"InP","123":"HgTe","124":"GdO","125":"ZnNi","126":"SnSb","127":"MoN","128":"SnTe","129":"NbC","130":"YC","131":"Be5Pd","132":"RuC","133":"CrN","134":"DyCu5","135":"BeSe","136":"CdC","137":"RhN"},"elements":{"0":["Al","As"],"1":["Os","N"],"2":["Ag","Br"],"3":["Be","Au"],"4":["In","As"],"5":["Re","C"],"6":["Tl","As"],"7":["Al","N"],"8":["Cd","Se"],"9":["Cd","Te"],"10":["Zn","N"],"11":["Ga","Sb"],"12":["Ag","O"],"13":["Ga","N"],"14":["Os","C"],"15":["Mo","C"],"16":["Sc","Ge"],"17":["Ag","I"],"18":["Cd","S"],"19":["Rh","C"],"20":["Mn","S"],"21":["In","Sb"],"22":["Ga","P"],"23":["Ga","As"],"24":["Si","C"],"25":["Ag","Se"],"26":["Zr","Ni"],"27":["Sc","Sn"],"28":["Cu","I"],"29":["W","N"],"30":["Cu","N"],"31":["Ti","Al"],"32":["V","N"],"33":["Zn","S"],"34":["Si","P"],"35":["B","Sb"],"36":["Ag","C"],"37":["Mn","As"],"38":["Mg","Al"],"39":["Ta","C"],"40":["Be","Fe"],"41":["Si","Sn"],"42":["Al","Bi"],"43":["B","P"],"44":["Pd","N"],"45":["Sc","N"],"46":["Y","N"],"47":["Pt","N"],"48":["Zn","Se"],"49":["Ho","Cu"],"50":["Au","N"],"51":["Hf","N"],"52":["Zr","C"],"53":["U","Ni"],"54":["B","N"],"55":["Bi","B"],"56":["Ir","C"],"57":["Al","Sb"],"58":["Ta","N"],"59":["Pt","C"],"60":["Mg","Se"],"61":["Rb","Sb"],"62":["Ga","Bi"],"63":["Cu","Se"],"64":["Ti","Ga"],"65":["Ca","Au"],"66":["Ti","N"],"67":["Ca","Se"],"68":["Mg","Te"],"69":["In","Bi"],"70":["Re","N"],"71":["Zn","Te"],"72":["Mn","Sb"],"73":["Ti","Si"],"74":["Sc","P"],"75":["Tc","C"],"76":["Er","Cu"],"77":["Tc","N"],"78":["Sn","S"],"79":["Cu","S"],"80":["Ge","P"],"81":["Pd","C"],"82":["Mg","S"],"83":["Mo","P"],"84":["Mn","N"],"85":["Co","N"],"86":["Ru","N"],"87":["Hg","Se"],"88":["Ti","Ge"],"89":["Ir","N"],"90":["Sc","Si"],"91":["Tm","Cu"],"92":["Ti","B"],"93":["Tl","N"],"94":["Sn","C"],"95":["Tl","P"],"96":["Mo","S"],"97":["Cu","Cl"],"98":["Mn","Te"],"99":["Ag","N"],"100":["W","C"],"101":["Hg","S"],"102":["Mn","Se"],"103":["Be","S"],"104":["Be","O"],"105":["Zr","Cu"],"106":["Mn","P"],"107":["Hf","C"],"108":["Ti","Sn"],"109":["Be","Te"],"110":["Hf","Ni"],"111":["Al","P"],"112":["Fe","N"],"113":["Ti","In"],"114":["Cu","Br"],"115":["Cr","Te"],"116":["Tc","B"],"117":["Nb","N"],"118":["B","As"],"119":["Pr","N"],"120":["Zn","O"],"121":["Mn","Ge"],"122":["In","P"],"123":["Hg","Te"],"124":["Gd","O"],"125":["Zn","Ni"],"126":["Sn","Sb"],"127":["Mo","N"],"128":["Sn","Te"],"129":["Nb","C"],"130":["Y","C"],"131":["Be","Pd"],"132":["Ru","C"],"133":["Cr","N"],"134":["Dy","Cu"],"135":["Be","Se"],"136":["Cd","C"],"137":["Rh","N"]},"unit_cell_formula":{"0":{"Al":1.0,"As":1.0},"1":{"Os":1.0,"N":1.0},"2":{"Ag":1.0,"Br":1.0},"3":{"Be":5.0,"Au":1.0},"4":{"In":1.0,"As":1.0},"5":{"Re":1.0,"C":1.0},"6":{"Tl":1.0,"As":1.0},"7":{"Al":1.0,"N":1.0},"8":{"Cd":1.0,"Se":1.0},"9":{"Cd":1.0,"Te":1.0},"10":{"Zn":1.0,"N":1.0},"11":{"Ga":1.0,"Sb":1.0},"12":{"Ag":1.0,"O":1.0},"13":{"Ga":1.0,"N":1.0},"14":{"Os":1.0,"C":1.0},"15":{"Mo":1.0,"C":1.0},"16":{"Sc":1.0,"Ge":1.0},"17":{"Ag":1.0,"I":1.0},"18":{"Cd":1.0,"S":1.0},"19":{"Rh":1.0,"C":1.0},"20":{"Mn":1.0,"S":1.0},"21":{"In":1.0,"Sb":1.0},"22":{"Ga":1.0,"P":1.0},"23":{"Ga":1.0,"As":1.0},"24":{"Si":1.0,"C":1.0},"25":{"Ag":1.0,"Se":1.0},"26":{"Zr":1.0,"Ni":5.0},"27":{"Sc":1.0,"Sn":1.0},"28":{"Cu":1.0,"I":1.0},"29":{"W":1.0,"N":1.0},"30":{"Cu":1.0,"N":1.0},"31":{"Ti":2.0,"Al":1.0},"32":{"V":1.0,"N":1.0},"33":{"Zn":1.0,"S":1.0},"34":{"Si":1.0,"P":1.0},"35":{"B":1.0,"Sb":1.0},"36":{"Ag":1.0,"C":1.0},"37":{"Mn":1.0,"As":1.0},"38":{"Mg":1.0,"Al":1.0},"39":{"Ta":1.0,"C":1.0},"40":{"Be":5.0,"Fe":1.0},"41":{"Si":1.0,"Sn":1.0},"42":{"Al":1.0,"Bi":1.0},"43":{"B":1.0,"P":1.0},"44":{"Pd":1.0,"N":1.0},"45":{"Sc":1.0,"N":1.0},"46":{"Y":1.0,"N":1.0},"47":{"Pt":1.0,"N":1.0},"48":{"Zn":1.0,"Se":1.0},"49":{"Ho":1.0,"Cu":5.0},"50":{"Au":1.0,"N":1.0},"51":{"Hf":1.0,"N":1.0},"52":{"Zr":1.0,"C":1.0},"53":{"U":1.0,"Ni":5.0},"54":{"B":1.0,"N":1.0},"55":{"Bi":1.0,"B":1.0},"56":{"Ir":1.0,"C":1.0},"57":{"Al":1.0,"Sb":1.0},"58":{"Ta":1.0,"N":1.0},"59":{"Pt":1.0,"C":1.0},"60":{"Mg":1.0,"Se":1.0},"61":{"Rb":1.0,"Sb":1.0},"62":{"Ga":1.0,"Bi":1.0},"63":{"Cu":2.0,"Se":1.0},"64":{"Ti":2.0,"Ga":1.0},"65":{"Ca":1.0,"Au":5.0},"66":{"Ti":1.0,"N":1.0},"67":{"Ca":1.0,"Se":1.0},"68":{"Mg":1.0,"Te":1.0},"69":{"In":1.0,"Bi":1.0},"70":{"Re":1.0,"N":1.0},"71":{"Zn":1.0,"Te":1.0},"72":{"Mn":1.0,"Sb":1.0},"73":{"Ti":2.0,"Si":1.0},"74":{"Sc":1.0,"P":1.0},"75":{"Tc":1.0,"C":1.0},"76":{"Er":1.0,"Cu":5.0},"77":{"Tc":1.0,"N":1.0},"78":{"Sn":1.0,"S":1.0},"79":{"Cu":1.0,"S":1.0},"80":{"Ge":1.0,"P":1.0},"81":{"Pd":1.0,"C":1.0},"82":{"Mg":1.0,"S":1.0},"83":{"Mo":1.0,"P":1.0},"84":{"Mn":1.0,"N":1.0},"85":{"Co":1.0,"N":1.0},"86":{"Ru":1.0,"N":1.0},"87":{"Hg":1.0,"Se":1.0},"88":{"Ti":2.0,"Ge":1.0},"89":{"Ir":1.0,"N":1.0},"90":{"Sc":1.0,"Si":1.0},"91":{"Tm":1.0,"Cu":5.0},"92":{"Ti":1.0,"B":1.0},"93":{"Tl":1.0,"N":1.0},"94":{"Sn":1.0,"C":1.0},"95":{"Tl":1.0,"P":1.0},"96":{"Mo":4.0,"S":8.0},"97":{"Cu":1.0,"Cl":1.0},"98":{"Mn":1.0,"Te":1.0},"99":{"Ag":1.0,"N":1.0},"100":{"W":1.0,"C":1.0},"101":{"Hg":1.0,"S":1.0},"102":{"Mn":1.0,"Se":1.0},"103":{"Be":1.0,"S":1.0},"104":{"Be":1.0,"O":1.0},"105":{"Zr":1.0,"Cu":5.0},"106":{"Mn":1.0,"P":1.0},"107":{"Hf":1.0,"C":1.0},"108":{"Ti":2.0,"Sn":1.0},"109":{"Be":1.0,"Te":1.0},"110":{"Hf":1.0,"Ni":5.0},"111":{"Al":1.0,"P":1.0},"112":{"Fe":1.0,"N":1.0},"113":{"Ti":2.0,"In":1.0},"114":{"Cu":1.0,"Br":1.0},"115":{"Cr":1.0,"Te":1.0},"116":{"Tc":1.0,"B":1.0},"117":{"Nb":1.0,"N":1.0},"118":{"B":1.0,"As":1.0},"119":{"Pr":1.0,"N":1.0},"120":{"Zn":1.0,"O":1.0},"121":{"Mn":2.0,"Ge":1.0},"122":{"In":1.0,"P":1.0},"123":{"Hg":1.0,"Te":1.0},"124":{"Gd":1.0,"O":1.0},"125":{"Zn":1.0,"Ni":1.0},"126":{"Sn":1.0,"Sb":1.0},"127":{"Mo":1.0,"N":1.0},"128":{"Sn":1.0,"Te":1.0},"129":{"Nb":1.0,"C":1.0},"130":{"Y":1.0,"C":1.0},"131":{"Be":5.0,"Pd":1.0},"132":{"Ru":1.0,"C":1.0},"133":{"Cr":1.0,"N":1.0},"134":{"Dy":1.0,"Cu":5.0},"135":{"Be":1.0,"Se":1.0},"136":{"Cd":1.0,"C":1.0},"137":{"Rh":1.0,"N":1.0}},"elasticity.K_VRH":{"0":70.0,"1":271.0,"2":28.0,"3":138.0,"4":49.0,"5":246.0,"6":39.0,"7":195.0,"8":45.0,"9":35.0,"10":132.0,"11":45.0,"12":79.0,"13":177.0,"14":256.0,"15":246.0,"16":30.0,"17":20.0,"18":53.0,"19":245.0,"20":56.0,"21":35.0,"22":76.0,"23":61.0,"24":211.0,"25":48.0,"26":184.0,"27":46.0,"28":36.0,"29":280.0,"30":206.0,"31":71.0,"32":225.0,"33":68.0,"34":53.0,"35":99.0,"36":131.0,"37":42.0,"38":13.0,"39":225.0,"40":132.0,"41":59.0,"42":37.0,"43":161.0,"44":191.0,"45":141.0,"46":115.0,"47":192.0,"48":58.0,"49":121.0,"50":139.0,"51":197.0,"52":135.0,"53":207.0,"54":408.0,"55":72.0,"56":284.0,"57":49.0,"58":243.0,"59":209.0,"60":44.0,"61":20.0,"62":28.0,"63":89.0,"64":50.0,"65":99.0,"66":222.0,"67":38.0,"68":33.0,"69":31.0,"70":281.0,"71":46.0,"72":37.0,"73":73.0,"74":42.0,"75":237.0,"76":123.0,"77":210.0,"78":38.0,"79":77.0,"80":65.0,"81":178.0,"82":55.0,"83":112.0,"84":239.0,"85":251.0,"86":233.0,"87":41.0,"88":62.0,"89":265.0,"90":28.0,"91":104.0,"92":101.0,"93":67.0,"94":121.0,"95":14.0,"96":65.0,"97":48.0,"98":20.0,"99":143.0,"100":249.0,"101":50.0,"102":55.0,"103":80.0,"104":139.0,"105":137.0,"106":26.0,"107":163.0,"108":60.0,"109":55.0,"110":169.0,"111":85.0,"112":267.0,"113":49.0,"114":43.0,"115":35.0,"116":177.0,"117":227.0,"118":128.0,"119":93.0,"120":127.0,"121":186.0,"122":59.0,"123":36.0,"124":102.0,"125":63.0,"126":30.0,"127":212.0,"128":26.0,"129":197.0,"130":68.0,"131":146.0,"132":223.0,"133":205.0,"134":107.0,"135":49.0,"136":81.0,"137":220.0},"nsites":{"0":2,"1":2,"2":2,"3":6,"4":2,"5":2,"6":2,"7":2,"8":2,"9":2,"10":2,"11":2,"12":2,"13":2,"14":2,"15":2,"16":2,"17":2,"18":2,"19":2,"20":2,"21":2,"22":2,"23":2,"24":2,"25":2,"26":6,"27":2,"28":2,"29":2,"30":2,"31":3,"32":2,"33":2,"34":2,"35":2,"36":2,"37":2,"38":2,"39":2,"40":6,"41":2,"42":2,"43":2,"44":2,"45":2,"46":2,"47":2,"48":2,"49":6,"50":2,"51":2,"52":2,"53":6,"54":2,"55":2,"56":2,"57":2,"58":2,"59":2,"60":2,"61":2,"62":2,"63":3,"64":3,"65":6,"66":2,"67":2,"68":2,"69":2,"70":2,"71":2,"72":2,"73":3,"74":2,"75":2,"76":6,"77":2,"78":2,"79":2,"80":2,"81":2,"82":2,"83":2,"84":2,"85":2,"86":2,"87":2,"88":3,"89":2,"90":2,"91":6,"92":2,"93":2,"94":2,"95":2,"96":12,"97":2,"98":2,"99":2,"100":2,"101":2,"102":2,"103":2,"104":2,"105":6,"106":2,"107":2,"108":3,"109":2,"110":6,"111":2,"112":2,"113":3,"114":2,"115":2,"116":2,"117":2,"118":2,"119":2,"120":2,"121":3,"122":2,"123":2,"124":2,"125":2,"126":2,"127":2,"128":2,"129":2,"130":2,"131":6,"132":2,"133":2,"134":6,"135":2,"136":2,"137":2},"spacegroup.symbol":{"0":"F-43m","1":"F-43m","2":"F-43m","3":"F-43m","4":"F-43m","5":"F-43m","6":"F-43m","7":"F-43m","8":"F-43m","9":"F-43m","10":"F-43m","11":"F-43m","12":"F-43m","13":"F-43m","14":"F-43m","15":"F-43m","16":"F-43m","17":"F-43m","18":"F-43m","19":"F-43m","20":"F-43m","21":"F-43m","22":"F-43m","23":"F-43m","24":"F-43m","25":"F-43m","26":"F-43m","27":"F-43m","28":"F-43m","29":"F-43m","30":"F-43m","31":"F-43m","32":"F-43m","33":"F-43m","34":"F-43m","35":"F-43m","36":"F-43m","37":"F-43m","38":"F-43m","39":"F-43m","40":"F-43m","41":"F-43m","42":"F-43m","43":"F-43m","44":"F-43m","45":"F-43m","46":"F-43m","47":"F-43m","48":"F-43m","49":"F-43m","50":"F-43m","51":"F-43m","52":"F-43m","53":"F-43m","54":"F-43m","55":"F-43m","56":"F-43m","57":"F-43m","58":"F-43m","59":"F-43m","60":"F-43m","61":"F-43m","62":"F-43m","63":"F-43m","64":"F-43m","65":"F-43m","66":"F-43m","67":"F-43m","68":"F-43m","69":"F-43m","70":"F-43m","71":"F-43m","72":"F-43m","73":"F-43m","74":"F-43m","75":"F-43m","76":"F-43m","77":"F-43m","78":"F-43m","79":"F-43m","80":"F-43m","81":"F-43m","82":"F-43m","83":"F-43m","84":"F-43m","85":"F-43m","86":"F-43m","87":"F-43m","88":"F-43m","89":"F-43m","90":"F-43m","91":"F-43m","92":"F-43m","93":"F-43m","94":"F-43m","95":"F-43m","96":"F-43m","97":"F-43m","98":"F-43m","99":"F-43m","100":"F-43m","101":"F-43m","102":"F-43m","103":"F-43m","104":"F-43m","105":"F-43m","106":"F-43m","107":"F-43m","108":"F-43m","109":"F-43m","110":"F-43m","111":"F-43m","112":"F-43m","113":"F-43m","114":"F-43m","115":"F-43m","116":"F-43m","117":"F-43m","118":"F-43m","119":"F-43m","120":"F-43m","121":"F-43m","122":"F-43m","123":"F-43m","124":"F-43m","125":"F-43m","126":"F-43m","127":"F-43m","128":"F-43m","129":"F-43m","130":"F-43m","131":"F-43m","132":"F-43m","133":"F-43m","134":"F-43m","135":"F-43m","136":"F-43m","137":"F-43m"},"bulk_modulus":{"0":70.0,"1":271.0,"2":28.0,"3":138.0,"4":49.0,"5":246.0,"6":39.0,"7":195.0,"8":45.0,"9":35.0,"10":132.0,"11":45.0,"12":79.0,"13":177.0,"14":256.0,"15":246.0,"16":30.0,"17":20.0,"18":53.0,"19":245.0,"20":56.0,"21":35.0,"22":76.0,"23":61.0,"24":211.0,"25":48.0,"26":184.0,"27":46.0,"28":36.0,"29":280.0,"30":206.0,"31":71.0,"32":225.0,"33":68.0,"34":53.0,"35":99.0,"36":131.0,"37":42.0,"38":13.0,"39":225.0,"40":132.0,"41":59.0,"42":37.0,"43":161.0,"44":191.0,"45":141.0,"46":115.0,"47":192.0,"48":58.0,"49":121.0,"50":139.0,"51":197.0,"52":135.0,"53":207.0,"54":408.0,"55":72.0,"56":284.0,"57":49.0,"58":243.0,"59":209.0,"60":44.0,"61":20.0,"62":28.0,"63":89.0,"64":50.0,"65":99.0,"66":222.0,"67":38.0,"68":33.0,"69":31.0,"70":281.0,"71":46.0,"72":37.0,"73":73.0,"74":42.0,"75":237.0,"76":123.0,"77":210.0,"78":38.0,"79":77.0,"80":65.0,"81":178.0,"82":55.0,"83":112.0,"84":239.0,"85":251.0,"86":233.0,"87":41.0,"88":62.0,"89":265.0,"90":28.0,"91":104.0,"92":101.0,"93":67.0,"94":121.0,"95":14.0,"96":65.0,"97":48.0,"98":20.0,"99":143.0,"100":249.0,"101":50.0,"102":55.0,"103":80.0,"104":139.0,"105":137.0,"106":26.0,"107":163.0,"108":60.0,"109":55.0,"110":169.0,"111":85.0,"112":267.0,"113":49.0,"114":43.0,"115":35.0,"116":177.0,"117":227.0,"118":128.0,"119":93.0,"120":127.0,"121":186.0,"122":59.0,"123":36.0,"124":102.0,"125":63.0,"126":30.0,"127":212.0,"128":26.0,"129":197.0,"130":68.0,"131":146.0,"132":223.0,"133":205.0,"134":107.0,"135":49.0,"136":81.0,"137":220.0},"atomic_concentrations":{"0":{"Al":0.5,"As":0.5},"1":{"Os":0.5,"N":0.5},"2":{"Ag":0.5,"Br":0.5},"3":{"Be":0.8333333333,"Au":0.1666666667},"4":{"In":0.5,"As":0.5},"5":{"Re":0.5,"C":0.5},"6":{"Tl":0.5,"As":0.5},"7":{"Al":0.5,"N":0.5},"8":{"Cd":0.5,"Se":0.5},"9":{"Cd":0.5,"Te":0.5},"10":{"Zn":0.5,"N":0.5},"11":{"Ga":0.5,"Sb":0.5},"12":{"Ag":0.5,"O":0.5},"13":{"Ga":0.5,"N":0.5},"14":{"Os":0.5,"C":0.5},"15":{"Mo":0.5,"C":0.5},"16":{"Sc":0.5,"Ge":0.5},"17":{"Ag":0.5,"I":0.5},"18":{"Cd":0.5,"S":0.5},"19":{"Rh":0.5,"C":0.5},"20":{"Mn":0.5,"S":0.5},"21":{"In":0.5,"Sb":0.5},"22":{"Ga":0.5,"P":0.5},"23":{"Ga":0.5,"As":0.5},"24":{"Si":0.5,"C":0.5},"25":{"Ag":0.5,"Se":0.5},"26":{"Zr":0.1666666667,"Ni":0.8333333333},"27":{"Sc":0.5,"Sn":0.5},"28":{"Cu":0.5,"I":0.5},"29":{"W":0.5,"N":0.5},"30":{"Cu":0.5,"N":0.5},"31":{"Ti":0.6666666667,"Al":0.3333333333},"32":{"V":0.5,"N":0.5},"33":{"Zn":0.5,"S":0.5},"34":{"Si":0.5,"P":0.5},"35":{"B":0.5,"Sb":0.5},"36":{"Ag":0.5,"C":0.5},"37":{"Mn":0.5,"As":0.5},"38":{"Mg":0.5,"Al":0.5},"39":{"Ta":0.5,"C":0.5},"40":{"Be":0.8333333333,"Fe":0.1666666667},"41":{"Si":0.5,"Sn":0.5},"42":{"Al":0.5,"Bi":0.5},"43":{"B":0.5,"P":0.5},"44":{"Pd":0.5,"N":0.5},"45":{"Sc":0.5,"N":0.5},"46":{"Y":0.5,"N":0.5},"47":{"Pt":0.5,"N":0.5},"48":{"Zn":0.5,"Se":0.5},"49":{"Ho":0.1666666667,"Cu":0.8333333333},"50":{"Au":0.5,"N":0.5},"51":{"Hf":0.5,"N":0.5},"52":{"Zr":0.5,"C":0.5},"53":{"U":0.1666666667,"Ni":0.8333333333},"54":{"B":0.5,"N":0.5},"55":{"Bi":0.5,"B":0.5},"56":{"Ir":0.5,"C":0.5},"57":{"Al":0.5,"Sb":0.5},"58":{"Ta":0.5,"N":0.5},"59":{"Pt":0.5,"C":0.5},"60":{"Mg":0.5,"Se":0.5},"61":{"Rb":0.5,"Sb":0.5},"62":{"Ga":0.5,"Bi":0.5},"63":{"Cu":0.6666666667,"Se":0.3333333333},"64":{"Ti":0.6666666667,"Ga":0.3333333333},"65":{"Ca":0.1666666667,"Au":0.8333333333},"66":{"Ti":0.5,"N":0.5},"67":{"Ca":0.5,"Se":0.5},"68":{"Mg":0.5,"Te":0.5},"69":{"In":0.5,"Bi":0.5},"70":{"Re":0.5,"N":0.5},"71":{"Zn":0.5,"Te":0.5},"72":{"Mn":0.5,"Sb":0.5},"73":{"Ti":0.6666666667,"Si":0.3333333333},"74":{"Sc":0.5,"P":0.5},"75":{"Tc":0.5,"C":0.5},"76":{"Er":0.1666666667,"Cu":0.8333333333},"77":{"Tc":0.5,"N":0.5},"78":{"Sn":0.5,"S":0.5},"79":{"Cu":0.5,"S":0.5},"80":{"Ge":0.5,"P":0.5},"81":{"Pd":0.5,"C":0.5},"82":{"Mg":0.5,"S":0.5},"83":{"Mo":0.5,"P":0.5},"84":{"Mn":0.5,"N":0.5},"85":{"Co":0.5,"N":0.5},"86":{"Ru":0.5,"N":0.5},"87":{"Hg":0.5,"Se":0.5},"88":{"Ti":0.6666666667,"Ge":0.3333333333},"89":{"Ir":0.5,"N":0.5},"90":{"Sc":0.5,"Si":0.5},"91":{"Tm":0.1666666667,"Cu":0.8333333333},"92":{"Ti":0.5,"B":0.5},"93":{"Tl":0.5,"N":0.5},"94":{"Sn":0.5,"C":0.5},"95":{"Tl":0.5,"P":0.5},"96":{"Mo":0.3333333333,"S":0.6666666667},"97":{"Cu":0.5,"Cl":0.5},"98":{"Mn":0.5,"Te":0.5},"99":{"Ag":0.5,"N":0.5},"100":{"W":0.5,"C":0.5},"101":{"Hg":0.5,"S":0.5},"102":{"Mn":0.5,"Se":0.5},"103":{"Be":0.5,"S":0.5},"104":{"Be":0.5,"O":0.5},"105":{"Zr":0.1666666667,"Cu":0.8333333333},"106":{"Mn":0.5,"P":0.5},"107":{"Hf":0.5,"C":0.5},"108":{"Ti":0.6666666667,"Sn":0.3333333333},"109":{"Be":0.5,"Te":0.5},"110":{"Hf":0.1666666667,"Ni":0.8333333333},"111":{"Al":0.5,"P":0.5},"112":{"Fe":0.5,"N":0.5},"113":{"Ti":0.6666666667,"In":0.3333333333},"114":{"Cu":0.5,"Br":0.5},"115":{"Cr":0.5,"Te":0.5},"116":{"Tc":0.5,"B":0.5},"117":{"Nb":0.5,"N":0.5},"118":{"B":0.5,"As":0.5},"119":{"Pr":0.5,"N":0.5},"120":{"Zn":0.5,"O":0.5},"121":{"Mn":0.6666666667,"Ge":0.3333333333},"122":{"In":0.5,"P":0.5},"123":{"Hg":0.5,"Te":0.5},"124":{"Gd":0.5,"O":0.5},"125":{"Zn":0.5,"Ni":0.5},"126":{"Sn":0.5,"Sb":0.5},"127":{"Mo":0.5,"N":0.5},"128":{"Sn":0.5,"Te":0.5},"129":{"Nb":0.5,"C":0.5},"130":{"Y":0.5,"C":0.5},"131":{"Be":0.8333333333,"Pd":0.1666666667},"132":{"Ru":0.5,"C":0.5},"133":{"Cr":0.5,"N":0.5},"134":{"Dy":0.1666666667,"Cu":0.8333333333},"135":{"Be":0.5,"Se":0.5},"136":{"Cd":0.5,"C":0.5},"137":{"Rh":0.5,"N":0.5}}}